+ 1 0 1 tcp 40 ------- 1 0.0 1.0 0 0
- 1 0 1 tcp 40 ------- 1 0.0 1.0 0 0
r 1.01032 0 1 tcp 40 ------- 1 0.0 1.0 0 0
+ 1.01032 1 0 ack 40 ------- 1 1.0 0.0 0 1
- 1.01032 1 0 ack 40 ------- 1 1.0 0.0 0 1
r 1.02064 1 0 ack 40 ------- 1 1.0 0.0 0 1
+ 1.02064 0 1 tcp 1040 ------- 1 0.0 1.0 1 2
- 1.02064 0 1 tcp 1040 ------- 1 0.0 1.0 1 2
r 1.03896 0 1 tcp 1040 ------- 1 0.0 1.0 1 2
+ 1.13896 1 0 ack 40 ------- 1 1.0 0.0 1 3
- 1.13896 1 0 ack 40 ------- 1 1.0 0.0 1 3
r 1.14928 1 0 ack 40 ------- 1 1.0 0.0 1 3
